 Program PWSCF v.7.2 starts
 convergence has been achieved
 !    total energy              =     -1.39647425 Ry
 End of BFGS Geometry Optimization
 JOB DONE.
